 vasp.6.1.1 19Jun20 (build Oct 21 2020 17:26:03) complex                        
  
 executed on             LinuxIFC date 2021.04.04  17:00:26
 running on   16 total cores
 distrk:  each k-point on   16 cores,    1 groups
 distr:  one band on NCORE=   4 cores,    4 groups


--------------------------------------------------------------------------------------------------------


 INCAR:
 POTCAR:    PAW_PBE Mo 08Apr2002                  
 POTCAR:    PAW_PBE S 06Sep2000                   
 POTCAR:    PAW_PBE Se 06Sep2000                  
 -----------------------------------------------------------------------------
|                                                                             |
|           W    W    AA    RRRRR   N    N  II  N    N   GGGG   !!!           |
|           W    W   A  A   R    R  NN   N  II  NN   N  G    G  !!!           |
|           W    W  A    A  R    R  N N  N  II  N N  N  G       !!!           |
|           W WW W  AAAAAA  RRRRR   N  N N  II  N  N N  G  GGG   !            |
|           WW  WW  A    A  R   R   N   NN  II  N   NN  G    G                |
|           W    W  A    A  R    R  N    N  II  N    N   GGGG   !!!           |
|                                                                             |
|     You use a magnetic or noncollinear calculation, but did not specify     |
|     the initial magnetic moment with the MAGMOM tag. Note that a            |
|     default of 1 will be used for all atoms. This ferromagnetic setup       |
|     may break the symmetry of the crystal, in particular it may rule        |
|     out finding an antiferromagnetic solution. Thence, we recommend         |
|     setting the initial magnetic moment manually or verifying carefully     |
|     that this magnetic setup is desired.                                    |
|                                                                             |
 -----------------------------------------------------------------------------

 POTCAR:    PAW_PBE Mo 08Apr2002                  
   VRHFIN =Mo: 4p5s4d                                                                               
   LEXCH  = PE                                                                                      
   EATOM  =   217.5176 eV,   15.9871 Ry                                                             
                                                                                                    
   TITEL  = PAW_PBE Mo 08Apr2002                                                                    
   LULTRA =        F    use ultrasoft PP ?                                                          
   IUNSCR =        1    unscreen: 0-lin 1-nonlin 2-no                                               
   RPACOR =    2.200    partial core radius                                                         
   POMASS =   95.940; ZVAL   =    6.000    mass and valenz                                          
   RCORE  =    2.750    outmost cutoff radius                                                       
   RWIGS  =    2.750; RWIGS  =    1.455    wigner-seitz radius (au A)                               
   ENMAX  =  224.584; ENMIN  =  168.438 eV                                                          
   RCLOC  =    2.111    cutoff for local pot                                                        
   LCOR   =        T    correct aug charges                                                         
   LPAW   =        T    paw PP                                                                      
   EAUG   =  345.278                                                                                
   DEXC   =    0.000                                                                                
   RMAX   =    2.821    core radius for proj-oper                                                   
   RAUG   =    1.300    factor for augmentation sphere                                              
   RDEP   =    2.815    radius for radial grids                                                     
   RDEPT  =    2.211    core radius for aug-charge                                                  
                                                                                                    
   Atomic configuration                                                                             
   12 entries                                                                                       
     n  l   j            E        occ.                                                              
     1  0  0.50    -19819.0341   2.0000                                                             
     2  0  0.50     -2799.0127   2.0000                                                             
     2  1  1.50     -2502.0276   6.0000                                                             
     3  0  0.50      -476.4448   2.0000                                                             
     3  1  1.50      -379.1496   6.0000                                                             
     3  2  2.50      -220.9367  10.0000                                                             
     4  0  0.50       -64.3378   2.0000                                                             
     4  1  1.50       -38.4773   6.0000                                                             
     4  2  2.50        -3.7535   5.0000                                                             
     5  0  0.50        -4.0862   1.0000                                                             
     5  1  0.50        -2.7701   0.0000                                                             
     4  3  2.50        -1.3606   0.0000                                                             
   Description                                                                                      
     l       E           TYP  RCUT    TYP  RCUT                                                     
     2     -3.7534765     23  2.500                                                                 
     2     -5.1140591     23  2.500                                                                 
     0     -4.0861560     23  2.600                                                                 
     0     13.6058260     23  2.600                                                                 
     1      5.4423304     23  2.750                                                                 
     1     27.2116520     23  2.750                                                                 
  local pseudopotential read in
  partial core-charges read in
  partial kinetic energy density read in
  atomic valenz-charges read in
  non local Contribution for L=           2  read in
    real space projection operators read in
  non local Contribution for L=           2  read in
    real space projection operators read in
  non local Contribution for L=           0  read in
    real space projection operators read in
  non local Contribution for L=           0  read in
    real space projection operators read in
  non local Contribution for L=           1  read in
    real space projection operators read in
  non local Contribution for L=           1  read in
    real space projection operators read in
    PAW grid and wavefunctions read in
 
   number of l-projection  operators is LMAX  =           6
   number of lm-projection operators is LMMAX =          18
 
 POTCAR:    PAW_PBE S 06Sep2000                   
   VRHFIN =S : s2p4                                                                                 
   LEXCH  = PE                                                                                      
   EATOM  =   276.8230 eV,   20.3459 Ry                                                             
                                                                                                    
   TITEL  = PAW_PBE S 06Sep2000                                                                     
   LULTRA =        F    use ultrasoft PP ?                                                          
   IUNSCR =        1    unscreen: 0-lin 1-nonlin 2-no                                               
   RPACOR =    1.500    partial core radius                                                         
   POMASS =   32.066; ZVAL   =    6.000    mass and valenz                                          
   RCORE  =    1.900    outmost cutoff radius                                                       
   RWIGS  =    2.200; RWIGS  =    1.164    wigner-seitz radius (au A)                               
   ENMAX  =  258.689; ENMIN  =  194.016 eV                                                          
   ICORE  =        2    local potential                                                             
   LCOR   =        T    correct aug charges                                                         
   LPAW   =        T    paw PP                                                                      
   EAUG   =  335.092                                                                                
   DEXC   =    0.000                                                                                
   RMAX   =    1.942    core radius for proj-oper                                                   
   RAUG   =    1.300    factor for augmentation sphere                                              
   RDEP   =    1.954    radius for radial grids                                                     
   RDEPT  =    1.744    core radius for aug-charge                                                  
                                                                                                    
   Atomic configuration                                                                             
    6 entries                                                                                       
     n  l   j            E        occ.                                                              
     1  0  0.50     -2405.8406   2.0000                                                             
     2  0  0.50      -211.7007   2.0000                                                             
     2  1  1.50      -156.4958   6.0000                                                             
     3  0  0.50       -17.2562   2.0000                                                             
     3  1  0.50        -7.0085   4.0000                                                             
     3  2  1.50        -6.8029   0.0000                                                             
   Description                                                                                      
     l       E           TYP  RCUT    TYP  RCUT                                                     
     0    -17.2561641     23  1.900                                                                 
     0    -15.8743224     23  1.900                                                                 
     1     -7.0085400     23  1.900                                                                 
     1     -2.7779785     23  1.900                                                                 
     2     -6.8029130     23  1.900                                                                 
  local pseudopotential read in
  partial core-charges read in
  partial kinetic energy density read in
  atomic valenz-charges read in
  non local Contribution for L=           0  read in
    real space projection operators read in
  non local Contribution for L=           0  read in
    real space projection operators read in
  non local Contribution for L=           1  read in
    real space projection operators read in
  non local Contribution for L=           1  read in
    real space projection operators read in
    PAW grid and wavefunctions read in
 
   number of l-projection  operators is LMAX  =           4
   number of lm-projection operators is LMMAX =           8
 
 POTCAR:    PAW_PBE Se 06Sep2000                  
   VRHFIN =Se: s2p4                                                                                 
   LEXCH  = PE                                                                                      
   EATOM  =   257.1286 eV,   18.8984 Ry                                                             
                                                                                                    
   TITEL  = PAW_PBE Se 06Sep2000                                                                    
   LULTRA =        F    use ultrasoft PP ?                                                          
   IUNSCR =        1    unscreen: 0-lin 1-nonlin 2-no                                               
   RPACOR =    1.900    partial core radius                                                         
   POMASS =   78.960; ZVAL   =    6.000    mass and valenz                                          
   RCORE  =    2.100    outmost cutoff radius                                                       
   RWIGS  =    2.200; RWIGS  =    1.164    wigner-seitz radius (au A)                               
   ENMAX  =  211.555; ENMIN  =  158.666 eV                                                          
   ICORE  =        3    local potential                                                             
   LCOR   =        T    correct aug charges                                                         
   LPAW   =        T    paw PP                                                                      
   EAUG   =  446.842                                                                                
   DEXC   =    0.000                                                                                
   RMAX   =    2.147    core radius for proj-oper                                                   
   RAUG   =    1.300    factor for augmentation sphere                                              
   RDEP   =    2.177    radius for radial grids                                                     
   RDEPT  =    1.928    core radius for aug-charge                                                  
                                                                                                    
   Atomic configuration                                                                             
   10 entries                                                                                       
     n  l   j            E        occ.                                                              
     1  0  0.50    -12503.4787   2.0000                                                             
     2  0  0.50     -1606.9547   2.0000                                                             
     2  1  1.50     -1413.3140   6.0000                                                             
     3  0  0.50      -213.4885   2.0000                                                             
     3  1  1.50      -152.9538   6.0000                                                             
     3  2  2.50       -53.1221  10.0000                                                             
     4  0  0.50       -17.2865   2.0000                                                             
     4  1  0.50        -6.5110   4.0000                                                             
     4  2  2.50        -6.8029   0.0000                                                             
     4  3  2.50        -6.8029   0.0000                                                             
   Description                                                                                      
     l       E           TYP  RCUT    TYP  RCUT                                                     
     0    -17.2865377     23  2.100                                                                 
     0    -15.3094411     23  2.100                                                                 
     1     -6.5110275     23  2.100                                                                 
     1     -0.0695192     23  2.100                                                                 
     2     -6.8029130     23  2.100                                                                 
     3     -1.3605826      7  2.100                                                                 
  local pseudopotential read in
  partial core-charges read in
  partial kinetic energy density read in
  atomic valenz-charges read in
  non local Contribution for L=           0  read in
    real space projection operators read in
  non local Contribution for L=           0  read in
    real space projection operators read in
  non local Contribution for L=           1  read in
    real space projection operators read in
  non local Contribution for L=           1  read in
    real space projection operators read in
  non local Contribution for L=           2  read in
    real space projection operators read in
    PAW grid and wavefunctions read in
 
   number of l-projection  operators is LMAX  =           5
   number of lm-projection operators is LMMAX =          13
 
 -----------------------------------------------------------------------------
|                                                                             |
|               ----> ADVICE to this user running VASP <----                  |
|                                                                             |
|     You have a (more or less) 'small supercell' and for smaller cells       |
|     it is recommended to use the reciprocal-space projection scheme!        |
|     The real-space optimization is not efficient for small cells and it     |
|     is also less accurate ...                                               |
|     Therefore, set LREAL=.FALSE. in the INCAR file.                         |
|                                                                             |
 -----------------------------------------------------------------------------

 Optimization of the real space projectors (new method)

 maximal supplied QI-value         = 13.61
 optimisation between [QCUT,QGAM] = [ 11.43, 22.86] = [ 36.58,146.31] Ry 
 Optimized for a Real-space Cutoff    1.56 Angstroem

   l    n(q)    QCUT    max X(q) W(low)/X(q) W(high)/X(q)  e(spline) 
   2     10    11.429    80.908    0.27E-03    0.78E-03    0.13E-05
   2     10    11.429    79.000    0.27E-03    0.78E-03    0.13E-05
   0     11    11.429    52.066    0.33E-04    0.97E-04    0.72E-06
   0     11    11.429    24.514    0.27E-04    0.80E-04    0.60E-06
   1     10    11.429    16.033    0.31E-04    0.17E-03    0.36E-06
   1     10    11.429    11.179    0.22E-04    0.13E-03    0.29E-06
 Optimization of the real space projectors (new method)

 maximal supplied QI-value         = 19.84
 optimisation between [QCUT,QGAM] = [ 11.31, 22.82] = [ 35.82,145.81] Ry 
 Optimized for a Real-space Cutoff    1.16 Angstroem

   l    n(q)    QCUT    max X(q) W(low)/X(q) W(high)/X(q)  e(spline) 
   0      8    11.310   187.594    0.35E-03    0.37E-03    0.44E-07
   0      8    11.310   164.243    0.34E-03    0.37E-03    0.44E-07
   1      7    11.310    67.533    0.33E-03    0.37E-03    0.88E-07
   1      7    11.310    50.729    0.32E-03    0.36E-03    0.86E-07
 Optimization of the real space projectors (new method)

 maximal supplied QI-value         = 17.95
 optimisation between [QCUT,QGAM] = [ 11.31, 22.80] = [ 35.82,145.56] Ry 
 Optimized for a Real-space Cutoff    1.16 Angstroem

   l    n(q)    QCUT    max X(q) W(low)/X(q) W(high)/X(q)  e(spline) 
   0      8    11.310   133.320    0.24E-03    0.11E-03    0.89E-07
   0      8    11.310   111.601    0.25E-03    0.12E-03    0.93E-07
   1      7    11.310    47.222    0.38E-03    0.69E-03    0.10E-06
   1      7    11.310    33.775    0.36E-03    0.68E-03    0.10E-06
   2      7    11.310     3.720    0.26E-03    0.11E-03    0.41E-07
  PAW_PBE Mo 08Apr2002                  :
 energy of atom  1       EATOM= -217.5176
 kinetic energy error for atom=    0.0017 (will be added to EATOM!!)
  PAW_PBE S 06Sep2000                   :
 energy of atom  2       EATOM= -276.8230
 kinetic energy error for atom=    0.0020 (will be added to EATOM!!)
  PAW_PBE Se 06Sep2000                  :
 energy of atom  3       EATOM= -257.1286
 kinetic energy error for atom=    0.0008 (will be added to EATOM!!)
 
 
 POSCAR: MoSSe
  positions in direct lattice
  No initial velocities read in
 exchange correlation table for  LEXCH =        8
   RHO(1)=    0.500       N(1)  =     2000
   RHO(2)=  100.500       N(2)  =     4000
 


--------------------------------------------------------------------------------------------------------


 ion  position               nearest neighbor table
   1  0.333  0.667  0.498-   2 2.42   2 2.42   2 2.42   3 2.54   3 2.54   3 2.54
   2  0.667  0.333  0.434-   1 2.42   1 2.42   1 2.42
   3  0.667  0.333  0.569-   1 2.54   1 2.54   1 2.54
 
  LATTYP: Found a hexagonal cell.
 ALAT       =     3.2484878778
 C/A-ratio  =     7.3789395714
  
  Lattice vectors:
  
 A1 = (   3.2484878775,   0.0000000000,   0.0000000000)
 A2 = (  -1.6242439382,   2.8132730258,   0.0000000000)
 A3 = (   0.0000000000,   0.0000000000,  23.9703957487)


Analysis of symmetry for initial positions (statically):
=====================================================================
 Subroutine PRICEL returns:
 Original cell was already a primitive cell.
 

 Routine SETGRP: Setting up the symmetry group for a 
 hexagonal supercell.


 Subroutine GETGRP returns: Found  6 space group operations
 (whereof  6 operations were pure point group operations)
 out of a pool of 24 trial point group operations.


The static configuration has the point symmetry C_3v.


Analysis of symmetry for dynamics (positions and initial velocities):
=====================================================================
 Subroutine PRICEL returns:
 Original cell was already a primitive cell.
 

 Routine SETGRP: Setting up the symmetry group for a 
 hexagonal supercell.


 Subroutine GETGRP returns: Found  6 space group operations
 (whereof  6 operations were pure point group operations)
 out of a pool of 24 trial point group operations.


The dynamic configuration has the point symmetry C_3v.


Analysis of structural, dynamic, and magnetic symmetry:
=====================================================================
 Subroutine PRICEL returns:
 Original cell was already a primitive cell.
 

 Routine SETGRP: Setting up the symmetry group for a 
 hexagonal supercell.


 Subroutine GETGRP returns: Found  1 space group operations
 (whereof  1 operations were pure point group operations)
 out of a pool of 24 trial point group operations.


The (compounded) configuration has the point symmetry C_1 .


 Subroutine INISYM returns: Found  1 space group operations
 (whereof  1 operations are pure point group operations),
 and found     1 'primitive' translations


----------------------------------------------------------------------------------------

                                     Primitive cell                                     

  volume of cell :     219.0626

  direct lattice vectors                    reciprocal lattice vectors
     3.248487878  0.000000000  0.000000000     0.307835534  0.177728928  0.000000000
    -1.624243938  2.813273026  0.000000000     0.000000000  0.355457857  0.000000000
     0.000000000  0.000000000 23.970395749     0.000000000  0.000000000  0.041718126

  length of vectors
     3.248487878  3.248487877 23.970395749     0.355457857  0.355457857  0.041718126

  position of ions in fractional coordinates (direct lattice)
     0.333333333  0.666666667  0.497537082
     0.666666667  0.333333333  0.433772328
     0.666666666  0.333333333  0.568690551

  ion indices of the primitive-cell ions
   primitive index   ion index
                 1           1
                 2           2
                 3           3

----------------------------------------------------------------------------------------

 
 
 KPOINTS: K-Path Generated by VASPKIT.            
  interpolating k-points between supplied coordinates
  k-points in reciprocal lattice
Space group operators:
 irot       det(A)        alpha          n_x          n_y          n_z        tau_x        tau_y        tau_z
    1     1.000000     0.000000     1.000000     0.000000     0.000000     0.000000     0.000000     0.000000


--------------------------------------------------------------------------------------------------------




 Dimension of arrays:
   k-points           NKPTS =   1500   k-points in BZ     NKDIM =   1500   number of bands    NBANDS=     32
   number of dos      NEDOS =    301   number of ions     NIONS =      3
   non local maximal  LDIM  =      6   non local SUM 2l+1 LMDIM =     18
   total plane-waves  NPLWV =  45360
   max r-space proj   IRMAX =   3369   max aug-charges    IRDMAX=  13492
   dimension x,y,z NGX =    18 NGY =   18 NGZ =  140
   dimension x,y,z NGXF=    36 NGYF=   36 NGZF=  280
   support grid    NGXF=    36 NGYF=   36 NGZF=  280
   ions per type =               1   1   1
   NGX,Y,Z   is equivalent  to a cutoff of   9.21,  9.21,  9.71 a.u.
   NGXF,Y,Z  is equivalent  to a cutoff of  18.42, 18.42, 19.42 a.u.

 SYSTEM =  unknown system                          
 POSCAR =  MoSSe                                   

 Startparameter for this run:
   NWRITE =      2    write-flag & timer
   PREC   = normal    normal or accurate (medium, high low for compatibility)
   ISTART =      1    job   : 0-new  1-cont  2-samecut
   ICHARG =     11    charge: 1-file 2-atom 10-const
   ISPIN  =      1    spin polarized calculation?
   LNONCOLLINEAR =      T non collinear calculations
   LSORBIT =      T    spin-orbit coupling
   INIWAV =      1    electr: 0-lowe 1-rand  2-diag
   LASPH  =      F    aspherical Exc in radial PAW
   METAGGA=      F    non-selfconsistent MetaGGA calc.

 Electronic Relaxation 1
   ENCUT  =  500.0 eV  36.75 Ry    6.06 a.u.   5.92  5.92 43.70*2*pi/ulx,y,z
   ENINI  =  500.0     initial cutoff
   ENAUG  =  446.8 eV  augmentation charge cutoff
   NELM   =     60;   NELMIN= 10; NELMDL=  0     # of ELM steps 
   EDIFF  = 0.1E-07   stopping-criterion for ELM
   LREAL  =      T    real-space projection
   NLSPLINE    = F    spline interpolate recip. space projectors
   LCOMPAT=      F    compatible to vasp.4.4
   GGA_COMPAT  = F    GGA compatible to vasp.4.4-vasp.4.6
   LMAXPAW     = -100 max onsite density
   LMAXMIX     =    4 max onsite mixed and CHGCAR
   VOSKOWN=      0    Vosko Wilk Nusair interpolation
   ROPT   =   -0.00050  -0.00050  -0.00050
 Ionic relaxation
   EDIFFG = 0.1E-06   stopping-criterion for IOM
   NSW    =      0    number of steps for IOM
   NBLOCK =      1;   KBLOCK =      1    inner block; outer block 
   IBRION =     -1    ionic relax: 0-MD 1-quasi-New 2-CG
   NFREE  =      0    steps in history (QN), initial steepest desc. (CG)
   ISIF   =      2    stress and relaxation
   IWAVPR =     10    prediction:  0-non 1-charg 2-wave 3-comb
   ISYM   =      2    0-nonsym 1-usesym 2-fastsym
   LCORR  =      T    Harris-Foulkes like correction to forces

   POTIM  = 0.5000    time-step for ionic-motion
   TEIN   =    0.0    initial temperature
   TEBEG  =    0.0;   TEEND  =   0.0 temperature during run
   SMASS  =  -3.00    Nose mass-parameter (am)
   estimated Nose-frequenzy (Omega)   =  0.10E-29 period in steps = 0.13E+47 mass=  -0.241E-27a.u.
   SCALEE = 1.0000    scale energy and forces
   NPACO  =    256;   APACO  = 16.0  distance and # of slots for P.C.
   PSTRESS=    0.0 pullay stress

  Mass of Ions in am
   POMASS =  95.94 32.07 78.96
  Ionic Valenz
   ZVAL   =   6.00  6.00  6.00
  Atomic Wigner-Seitz radii
   RWIGS  =  -1.00 -1.00 -1.00
  virtual crystal weights 
   VCA    =   1.00  1.00  1.00
   NELECT =      18.0000    total number of electrons
   NUPDOWN=      -1.0000    fix difference up-down

 DOS related values:
   EMIN   =  10.00;   EMAX   =-10.00  energy-range for DOS
   EFERMI =   0.00
   ISMEAR =     0;   SIGMA  =   0.05  broadening in eV -4-tet -1-fermi 0-gaus

 Electronic relaxation 2 (details)
   IALGO  =     38    algorithm
   LDIAG  =      T    sub-space diagonalisation (order eigenvalues)
   LSUBROT=      F    optimize rotation matrix (better conditioning)
   TURBO    =      0    0=normal 1=particle mesh
   IRESTART =      0    0=no restart 2=restart with 2 vectors
   NREBOOT  =      0    no. of reboots
   NMIN     =      0    reboot dimension
   EREF     =   0.00    reference energy to select bands
   IMIX   =      4    mixing-type and parameters
     AMIX     =   0.40;   BMIX     =  1.00
     AMIX_MAG =   1.60;   BMIX_MAG =  1.00
     AMIN     =   0.10
     WC   =   100.;   INIMIX=   1;  MIXPRE=   1;  MAXMIX= -45

 Intra band minimization:
   WEIMIN = 0.0000     energy-eigenvalue tresh-hold
   EBREAK =  0.78E-10  absolut break condition
   DEPER  =   0.30     relativ break condition  

   TIME   =   0.40     timestep for ELM

  volume/ion in A,a.u.               =      73.02       492.77
  Fermi-wavevector in a.u.,A,eV,Ry     =   0.711721  1.344957  6.891980  0.506546
  Thomas-Fermi vector in A             =   1.798907
 
 Write flags
   LWAVE        =      F    write WAVECAR
   LDOWNSAMPLE  =      F    k-point downsampling of WAVECAR
   LCHARG       =      F    write CHGCAR
   LVTOT        =      F    write LOCPOT, total local potential
   LVHAR        =      F    write LOCPOT, Hartree potential only
   LELF         =      F    write electronic localiz. function (ELF)
   LORBIT       =     11    0 simple, 1 ext, 2 COOP (PROOUT), +10 PAW based schemes


 Dipole corrections
   LMONO  =      F    monopole corrections only (constant potential shift)
   LDIPOL =      F    correct potential (dipole corrections)
   IDIPOL =      0    1-x, 2-y, 3-z, 4-all directions 
   EPSILON=  1.0000000 bulk dielectric constant

 Exchange correlation treatment:
   GGA     =    --    GGA type
   LEXCH   =     8    internal setting for exchange type
   VOSKOWN=      0    Vosko Wilk Nusair interpolation
   LHFCALC =     F    Hartree Fock is set to
   LHFONE  =     F    Hartree Fock one center treatment
   AEXX    =    0.0000 exact exchange contribution

 Linear response parameters
   LEPSILON=     F    determine dielectric tensor
   LRPA    =     F    only Hartree local field effects (RPA)
   LNABLA  =     F    use nabla operator in PAW spheres
   LVEL    =     F    velocity operator in full k-point grid
   LINTERFAST=   F  fast interpolation
   KINTER  =     0    interpolate to denser k-point grid
   CSHIFT  =0.1000    complex shift for real part using Kramers Kronig
   OMEGAMAX=  -1.0    maximum frequency
   DEG_THRESHOLD= 0.2000000E-02 threshold for treating states as degnerate
   RTIME   =   -0.100 relaxation time in fs
  (WPLASMAI=    0.000 imaginary part of plasma frequency in eV, 0.658/RTIME)
   DFIELD  = 0.0000000 0.0000000 0.0000000 field for delta impulse in time
 
 Orbital magnetization related:
   ORBITALMAG=     F  switch on orbital magnetization
   LCHIMAG   =     F  perturbation theory with respect to B field
   DQ        =  0.001000  dq finite difference perturbation B field
   LLRAUG    =     F  two centre corrections for induced B field



--------------------------------------------------------------------------------------------------------


 Static calculation
 charge density and potential remain constant during run
 non collinear spin polarized calculation
 Variant of blocked Davidson
 Davidson routine will perform the subspace rotation
 perform sub-space diagonalisation
    after iterative eigenvector-optimisation
 no mixing
 using additional bands           23
 real space projection scheme for non local part
 use partial core corrections
 calculate Harris-corrections to forces 
   (improved forces if not selfconsistent)
 use gradient corrections 
 WARNING: stress and forces are not correct
  (second derivative of E(xc) not defined)
 use of overlap-Matrix (Vanderbilt PP)
 Gauss-broadening in eV      SIGMA  =   0.05


--------------------------------------------------------------------------------------------------------


  energy-cutoff  :      500.00
  volume of cell :      219.06
      direct lattice vectors                 reciprocal lattice vectors
     3.248487878  0.000000000  0.000000000     0.307835534  0.177728928  0.000000000
    -1.624243938  2.813273026  0.000000000     0.000000000  0.355457857  0.000000000
     0.000000000  0.000000000 23.970395749     0.000000000  0.000000000  0.041718126

  length of vectors
     3.248487878  3.248487877 23.970395749     0.355457857  0.355457857  0.041718126


 
 old parameters found on file WAVECAR:
  energy-cutoff  :      500.00
  volume of cell :      219.06
      direct lattice vectors                 reciprocal lattice vectors
     3.248487878  0.000000000  0.000000000     0.307835534  0.177728928  0.000000000
    -1.624243938  2.813273026  0.000000000     0.000000000  0.355457857  0.000000000
     0.000000000  0.000000000 23.970395749     0.000000000  0.000000000  0.041718126

  length of vectors

 
 k-points in units of 2pi/SCALE and weight: K-Path Generated by VASPKIT.            
   0.00000000  0.00000000  0.00000000       0.001
   0.00030845  0.00017809  0.00000000       0.001
   0.00061690  0.00035617  0.00000000       0.001
   0.00092536  0.00053426  0.00000000       0.001
   0.00123381  0.00071234  0.00000000       0.001
   0.00154226  0.00089043  0.00000000       0.001
   0.00185071  0.00106851  0.00000000       0.001
   0.00215917  0.00124660  0.00000000       0.001
   0.00246762  0.00142468  0.00000000       0.001
   0.00277607  0.00160277  0.00000000       0.001
   0.00308452  0.00178085  0.00000000       0.001
   0.00339298  0.00195894  0.00000000       0.001
   0.00370143  0.00213702  0.00000000       0.001
   0.00400988  0.00231511  0.00000000       0.001
   0.00431833  0.00249319  0.00000000       0.001
   0.00462679  0.00267128  0.00000000       0.001
   0.00493524  0.00284936  0.00000000       0.001
   0.00524369  0.00302745  0.00000000       0.001
   0.00555214  0.00320553  0.00000000       0.001
   0.00586060  0.00338362  0.00000000       0.001
   0.00616905  0.00356170  0.00000000       0.001
   0.00647750  0.00373979  0.00000000       0.001
   0.00678595  0.00391787  0.00000000       0.001
   0.00709441  0.00409596  0.00000000       0.001
   0.00740286  0.00427404  0.00000000       0.001
   0.00771131  0.00445213  0.00000000       0.001
   0.00801976  0.00463021  0.00000000       0.001
   0.00832822  0.00480830  0.00000000       0.001
   0.00863667  0.00498638  0.00000000       0.001
   0.00894512  0.00516447  0.00000000       0.001
   0.00925357  0.00534255  0.00000000       0.001
   0.00956203  0.00552064  0.00000000       0.001
   0.00987048  0.00569872  0.00000000       0.001
   0.01017893  0.00587681  0.00000000       0.001
   0.01048738  0.00605489  0.00000000       0.001
   0.01079584  0.00623298  0.00000000       0.001
   0.01110429  0.00641106  0.00000000       0.001
   0.01141274  0.00658915  0.00000000       0.001
   0.01172119  0.00676723  0.00000000       0.001
   0.01202965  0.00694532  0.00000000       0.001
   0.01233810  0.00712340  0.00000000       0.001
   0.01264655  0.00730149  0.00000000       0.001
   0.01295500  0.00747957  0.00000000       0.001
   0.01326345  0.00765766  0.00000000       0.001
   0.01357191  0.00783574  0.00000000       0.001
   0.01388036  0.00801383  0.00000000       0.001
   0.01418881  0.00819191  0.00000000       0.001
   0.01449726  0.00837000  0.00000000       0.001
   0.01480572  0.00854808  0.00000000       0.001
   0.01511417  0.00872617  0.00000000       0.001
   0.01542262  0.00890425  0.00000000       0.001
   0.01573107  0.00908234  0.00000000       0.001
   0.01603953  0.00926043  0.00000000       0.001
   0.01634798  0.00943851  0.00000000       0.001
   0.01665643  0.00961660  0.00000000       0.001
   0.01696488  0.00979468  0.00000000       0.001
   0.01727334  0.00997277  0.00000000       0.001
   0.01758179  0.01015085  0.00000000       0.001
   0.01789024  0.01032894  0.00000000       0.001
   0.01819869  0.01050702  0.00000000       0.001
   0.01850715  0.01068511  0.00000000       0.001
   0.01881560  0.01086319  0.00000000       0.001
   0.01912405  0.01104128  0.00000000       0.001
   0.01943250  0.01121936  0.00000000       0.001
   0.01974096  0.01139745  0.00000000       0.001
   0.02004941  0.01157553  0.00000000       0.001
   0.02035786  0.01175362  0.00000000       0.001
   0.02066631  0.01193170  0.00000000       0.001
   0.02097477  0.01210979  0.00000000       0.001
   0.02128322  0.01228787  0.00000000       0.001
   0.02159167  0.01246596  0.00000000       0.001
   0.02190012  0.01264404  0.00000000       0.001
   0.02220858  0.01282213  0.00000000       0.001
   0.02251703  0.01300021  0.00000000       0.001
   0.02282548  0.01317830  0.00000000       0.001
   0.02313393  0.01335638  0.00000000       0.001
   0.02344239  0.01353447  0.00000000       0.001
   0.02375084  0.01371255  0.00000000       0.001
   0.02405929  0.01389064  0.00000000       0.001
   0.02436774  0.01406872  0.00000000       0.001
   0.02467620  0.01424681  0.00000000       0.001
   0.02498465  0.01442489  0.00000000       0.001
   0.02529310  0.01460298  0.00000000       0.001
   0.02560155  0.01478106  0.00000000       0.001
   0.02591000  0.01495915  0.00000000       0.001
   0.02621846  0.01513723  0.00000000       0.001
   0.02652691  0.01531532  0.00000000       0.001
   0.02683536  0.01549340  0.00000000       0.001
   0.02714381  0.01567149  0.00000000       0.001
   0.02745227  0.01584957  0.00000000       0.001
   0.02776072  0.01602766  0.00000000       0.001
   0.02806917  0.01620574  0.00000000       0.001
   0.02837762  0.01638383  0.00000000       0.001
   0.02868608  0.01656191  0.00000000       0.001
   0.02899453  0.01674000  0.00000000       0.001
   0.02930298  0.01691808  0.00000000       0.001
   0.02961143  0.01709617  0.00000000       0.001
   0.02991989  0.01727425  0.00000000       0.001
   0.03022834  0.01745234  0.00000000       0.001
   0.03053679  0.01763042  0.00000000       0.001
   0.03084524  0.01780851  0.00000000       0.001
   0.03115370  0.01798659  0.00000000       0.001
   0.03146215  0.01816468  0.00000000       0.001
   0.03177060  0.01834277  0.00000000       0.001
   0.03207905  0.01852085  0.00000000       0.001
   0.03238751  0.01869894  0.00000000       0.001
   0.03269596  0.01887702  0.00000000       0.001
   0.03300441  0.01905511  0.00000000       0.001
   0.03331286  0.01923319  0.00000000       0.001
   0.03362132  0.01941128  0.00000000       0.001
   0.03392977  0.01958936  0.00000000       0.001
   0.03423822  0.01976745  0.00000000       0.001
   0.03454667  0.01994553  0.00000000       0.001
   0.03485513  0.02012362  0.00000000       0.001
   0.03516358  0.02030170  0.00000000       0.001
   0.03547203  0.02047979  0.00000000       0.001
   0.03578048  0.02065787  0.00000000       0.001
   0.03608894  0.02083596  0.00000000       0.001
   0.03639739  0.02101404  0.00000000       0.001
   0.03670584  0.02119213  0.00000000       0.001
   0.03701429  0.02137021  0.00000000       0.001
   0.03732275  0.02154830  0.00000000       0.001
   0.03763120  0.02172638  0.00000000       0.001
   0.03793965  0.02190447  0.00000000       0.001
   0.03824810  0.02208255  0.00000000       0.001
   0.03855655  0.02226064  0.00000000       0.001
   0.03886501  0.02243872  0.00000000       0.001
   0.03917346  0.02261681  0.00000000       0.001
   0.03948191  0.02279489  0.00000000       0.001
   0.03979036  0.02297298  0.00000000       0.001
   0.04009882  0.02315106  0.00000000       0.001
   0.04040727  0.02332915  0.00000000       0.001
   0.04071572  0.02350723  0.00000000       0.001
   0.04102417  0.02368532  0.00000000       0.001
   0.04133263  0.02386340  0.00000000       0.001
   0.04164108  0.02404149  0.00000000       0.001
   0.04194953  0.02421957  0.00000000       0.001
   0.04225798  0.02439766  0.00000000       0.001
   0.04256644  0.02457574  0.00000000       0.001
   0.04287489  0.02475383  0.00000000       0.001
   0.04318334  0.02493191  0.00000000       0.001
   0.04349179  0.02511000  0.00000000       0.001
   0.04380025  0.02528808  0.00000000       0.001
   0.04410870  0.02546617  0.00000000       0.001
   0.04441715  0.02564425  0.00000000       0.001
   0.04472560  0.02582234  0.00000000       0.001
   0.04503406  0.02600042  0.00000000       0.001
   0.04534251  0.02617851  0.00000000       0.001
   0.04565096  0.02635659  0.00000000       0.001
   0.04595941  0.02653468  0.00000000       0.001
   0.04626787  0.02671276  0.00000000       0.001
   0.04657632  0.02689085  0.00000000       0.001
   0.04688477  0.02706893  0.00000000       0.001
   0.04719322  0.02724702  0.00000000       0.001
   0.04750168  0.02742511  0.00000000       0.001
   0.04781013  0.02760319  0.00000000       0.001
   0.04811858  0.02778128  0.00000000       0.001
   0.04842703  0.02795936  0.00000000       0.001
   0.04873549  0.02813745  0.00000000       0.001
   0.04904394  0.02831553  0.00000000       0.001
   0.04935239  0.02849362  0.00000000       0.001
   0.04966084  0.02867170  0.00000000       0.001
   0.04996930  0.02884979  0.00000000       0.001
   0.05027775  0.02902787  0.00000000       0.001
   0.05058620  0.02920596  0.00000000       0.001
   0.05089465  0.02938404  0.00000000       0.001
   0.05120310  0.02956213  0.00000000       0.001
   0.05151156  0.02974021  0.00000000       0.001
   0.05182001  0.02991830  0.00000000       0.001
   0.05212846  0.03009638  0.00000000       0.001
   0.05243691  0.03027447  0.00000000       0.001
   0.05274537  0.03045255  0.00000000       0.001
   0.05305382  0.03063064  0.00000000       0.001
   0.05336227  0.03080872  0.00000000       0.001
   0.05367072  0.03098681  0.00000000       0.001
   0.05397918  0.03116489  0.00000000       0.001
   0.05428763  0.03134298  0.00000000       0.001
   0.05459608  0.03152106  0.00000000       0.001
   0.05490453  0.03169915  0.00000000       0.001
   0.05521299  0.03187723  0.00000000       0.001
   0.05552144  0.03205532  0.00000000       0.001
   0.05582989  0.03223340  0.00000000       0.001
   0.05613834  0.03241149  0.00000000       0.001
   0.05644680  0.03258957  0.00000000       0.001
   0.05675525  0.03276766  0.00000000       0.001
   0.05706370  0.03294574  0.00000000       0.001
   0.05737215  0.03312383  0.00000000       0.001
   0.05768061  0.03330191  0.00000000       0.001
   0.05798906  0.03348000  0.00000000       0.001
   0.05829751  0.03365808  0.00000000       0.001
   0.05860596  0.03383617  0.00000000       0.001
   0.05891442  0.03401425  0.00000000       0.001
   0.05922287  0.03419234  0.00000000       0.001
   0.05953132  0.03437042  0.00000000       0.001
   0.05983977  0.03454851  0.00000000       0.001
   0.06014823  0.03472659  0.00000000       0.001
   0.06045668  0.03490468  0.00000000       0.001
   0.06076513  0.03508276  0.00000000       0.001
   0.06107358  0.03526085  0.00000000       0.001
   0.06138204  0.03543893  0.00000000       0.001
   0.06169049  0.03561702  0.00000000       0.001
   0.06199894  0.03579510  0.00000000       0.001
   0.06230739  0.03597319  0.00000000       0.001
   0.06261585  0.03615127  0.00000000       0.001
   0.06292430  0.03632936  0.00000000       0.001
   0.06323275  0.03650745  0.00000000       0.001
   0.06354120  0.03668553  0.00000000       0.001
   0.06384965  0.03686362  0.00000000       0.001
   0.06415811  0.03704170  0.00000000       0.001
   0.06446656  0.03721979  0.00000000       0.001
   0.06477501  0.03739787  0.00000000       0.001
   0.06508346  0.03757596  0.00000000       0.001
   0.06539192  0.03775404  0.00000000       0.001
   0.06570037  0.03793213  0.00000000       0.001
   0.06600882  0.03811021  0.00000000       0.001
   0.06631727  0.03828830  0.00000000       0.001
   0.06662573  0.03846638  0.00000000       0.001
   0.06693418  0.03864447  0.00000000       0.001
   0.06724263  0.03882255  0.00000000       0.001
   0.06755108  0.03900064  0.00000000       0.001
   0.06785954  0.03917872  0.00000000       0.001
   0.06816799  0.03935681  0.00000000       0.001
   0.06847644  0.03953489  0.00000000       0.001
   0.06878489  0.03971298  0.00000000       0.001
   0.06909335  0.03989106  0.00000000       0.001
   0.06940180  0.04006915  0.00000000       0.001
   0.06971025  0.04024723  0.00000000       0.001
   0.07001870  0.04042532  0.00000000       0.001
   0.07032716  0.04060340  0.00000000       0.001
   0.07063561  0.04078149  0.00000000       0.001
   0.07094406  0.04095957  0.00000000       0.001
   0.07125251  0.04113766  0.00000000       0.001
   0.07156097  0.04131574  0.00000000       0.001
   0.07186942  0.04149383  0.00000000       0.001
   0.07217787  0.04167191  0.00000000       0.001
   0.07248632  0.04185000  0.00000000       0.001
   0.07279478  0.04202808  0.00000000       0.001
   0.07310323  0.04220617  0.00000000       0.001
   0.07341168  0.04238425  0.00000000       0.001
   0.07372013  0.04256234  0.00000000       0.001
   0.07402859  0.04274042  0.00000000       0.001
   0.07433704  0.04291851  0.00000000       0.001
   0.07464549  0.04309659  0.00000000       0.001
   0.07495394  0.04327468  0.00000000       0.001
   0.07526240  0.04345276  0.00000000       0.001
   0.07557085  0.04363085  0.00000000       0.001
   0.07587930  0.04380893  0.00000000       0.001
   0.07618775  0.04398702  0.00000000       0.001
   0.07649620  0.04416510  0.00000000       0.001
   0.07680466  0.04434319  0.00000000       0.001
   0.07711311  0.04452127  0.00000000       0.001
   0.07742156  0.04469936  0.00000000       0.001
   0.07773001  0.04487744  0.00000000       0.001
   0.07803847  0.04505553  0.00000000       0.001
   0.07834692  0.04523362  0.00000000       0.001
   0.07865537  0.04541170  0.00000000       0.001
   0.07896382  0.04558979  0.00000000       0.001
   0.07927228  0.04576787  0.00000000       0.001
   0.07958073  0.04594596  0.00000000       0.001
   0.07988918  0.04612404  0.00000000       0.001
   0.08019763  0.04630213  0.00000000       0.001
   0.08050609  0.04648021  0.00000000       0.001
   0.08081454  0.04665830  0.00000000       0.001
   0.08112299  0.04683638  0.00000000       0.001
   0.08143144  0.04701447  0.00000000       0.001
   0.08173990  0.04719255  0.00000000       0.001
   0.08204835  0.04737064  0.00000000       0.001
   0.08235680  0.04754872  0.00000000       0.001
   0.08266525  0.04772681  0.00000000       0.001
   0.08297371  0.04790489  0.00000000       0.001
   0.08328216  0.04808298  0.00000000       0.001
   0.08359061  0.04826106  0.00000000       0.001
   0.08389906  0.04843915  0.00000000       0.001
   0.08420752  0.04861723  0.00000000       0.001
   0.08451597  0.04879532  0.00000000       0.001
   0.08482442  0.04897340  0.00000000       0.001
   0.08513287  0.04915149  0.00000000       0.001
   0.08544133  0.04932957  0.00000000       0.001
   0.08574978  0.04950766  0.00000000       0.001
   0.08605823  0.04968574  0.00000000       0.001
   0.08636668  0.04986383  0.00000000       0.001
   0.08667514  0.05004191  0.00000000       0.001
   0.08698359  0.05022000  0.00000000       0.001
   0.08729204  0.05039808  0.00000000       0.001
   0.08760049  0.05057617  0.00000000       0.001
   0.08790895  0.05075425  0.00000000       0.001
   0.08821740  0.05093234  0.00000000       0.001
   0.08852585  0.05111042  0.00000000       0.001
   0.08883430  0.05128851  0.00000000       0.001
   0.08914275  0.05146659  0.00000000       0.001
   0.08945121  0.05164468  0.00000000       0.001
   0.08975966  0.05182276  0.00000000       0.001
   0.09006811  0.05200085  0.00000000       0.001
   0.09037656  0.05217893  0.00000000       0.001
   0.09068502  0.05235702  0.00000000       0.001
   0.09099347  0.05253510  0.00000000       0.001
   0.09130192  0.05271319  0.00000000       0.001
   0.09161037  0.05289127  0.00000000       0.001
   0.09191883  0.05306936  0.00000000       0.001
   0.09222728  0.05324744  0.00000000       0.001
   0.09253573  0.05342553  0.00000000       0.001
   0.09284418  0.05360361  0.00000000       0.001
   0.09315264  0.05378170  0.00000000       0.001
   0.09346109  0.05395978  0.00000000       0.001
   0.09376954  0.05413787  0.00000000       0.001
   0.09407799  0.05431596  0.00000000       0.001
   0.09438645  0.05449404  0.00000000       0.001
   0.09469490  0.05467213  0.00000000       0.001
   0.09500335  0.05485021  0.00000000       0.001
   0.09531180  0.05502830  0.00000000       0.001
   0.09562026  0.05520638  0.00000000       0.001
   0.09592871  0.05538447  0.00000000       0.001
   0.09623716  0.05556255  0.00000000       0.001
   0.09654561  0.05574064  0.00000000       0.001
   0.09685407  0.05591872  0.00000000       0.001
   0.09716252  0.05609681  0.00000000       0.001
   0.09747097  0.05627489  0.00000000       0.001
   0.09777942  0.05645298  0.00000000       0.001
   0.09808788  0.05663106  0.00000000       0.001
   0.09839633  0.05680915  0.00000000       0.001
   0.09870478  0.05698723  0.00000000       0.001
   0.09901323  0.05716532  0.00000000       0.001
   0.09932169  0.05734340  0.00000000       0.001
   0.09963014  0.05752149  0.00000000       0.001
   0.09993859  0.05769957  0.00000000       0.001
   0.10024704  0.05787766  0.00000000       0.001
   0.10055550  0.05805574  0.00000000       0.001
   0.10086395  0.05823383  0.00000000       0.001
   0.10117240  0.05841191  0.00000000       0.001
   0.10148085  0.05859000  0.00000000       0.001
   0.10178930  0.05876808  0.00000000       0.001
   0.10209776  0.05894617  0.00000000       0.001
   0.10240621  0.05912425  0.00000000       0.001
   0.10271466  0.05930234  0.00000000       0.001
   0.10302311  0.05948042  0.00000000       0.001
   0.10333157  0.05965851  0.00000000       0.001
   0.10364002  0.05983659  0.00000000       0.001
   0.10394847  0.06001468  0.00000000       0.001
   0.10425692  0.06019276  0.00000000       0.001
   0.10456538  0.06037085  0.00000000       0.001
   0.10487383  0.06054893  0.00000000       0.001
   0.10518228  0.06072702  0.00000000       0.001
   0.10549073  0.06090510  0.00000000       0.001
   0.10579919  0.06108319  0.00000000       0.001
   0.10610764  0.06126127  0.00000000       0.001
   0.10641609  0.06143936  0.00000000       0.001
   0.10672454  0.06161744  0.00000000       0.001
   0.10703300  0.06179553  0.00000000       0.001
   0.10734145  0.06197361  0.00000000       0.001
   0.10764990  0.06215170  0.00000000       0.001
   0.10795835  0.06232978  0.00000000       0.001
   0.10826681  0.06250787  0.00000000       0.001
   0.10857526  0.06268595  0.00000000       0.001
   0.10888371  0.06286404  0.00000000       0.001
   0.10919216  0.06304212  0.00000000       0.001
   0.10950062  0.06322021  0.00000000       0.001
   0.10980907  0.06339830  0.00000000       0.001
   0.11011752  0.06357638  0.00000000       0.001
   0.11042597  0.06375447  0.00000000       0.001
   0.11073443  0.06393255  0.00000000       0.001
   0.11104288  0.06411064  0.00000000       0.001
   0.11135133  0.06428872  0.00000000       0.001
   0.11165978  0.06446681  0.00000000       0.001
   0.11196824  0.06464489  0.00000000       0.001
   0.11227669  0.06482298  0.00000000       0.001
   0.11258514  0.06500106  0.00000000       0.001
   0.11289359  0.06517915  0.00000000       0.001
   0.11320205  0.06535723  0.00000000       0.001
   0.11351050  0.06553532  0.00000000       0.001
   0.11381895  0.06571340  0.00000000       0.001
   0.11412740  0.06589149  0.00000000       0.001
   0.11443585  0.06606957  0.00000000       0.001
   0.11474431  0.06624766  0.00000000       0.001
   0.11505276  0.06642574  0.00000000       0.001
   0.11536121  0.06660383  0.00000000       0.001
   0.11566966  0.06678191  0.00000000       0.001
   0.11597812  0.06696000  0.00000000       0.001
   0.11628657  0.06713808  0.00000000       0.001
   0.11659502  0.06731617  0.00000000       0.001
   0.11690347  0.06749425  0.00000000       0.001
   0.11721193  0.06767234  0.00000000       0.001
   0.11752038  0.06785042  0.00000000       0.001
   0.11782883  0.06802851  0.00000000       0.001
   0.11813728  0.06820659  0.00000000       0.001
   0.11844574  0.06838468  0.00000000       0.001
   0.11875419  0.06856276  0.00000000       0.001
   0.11906264  0.06874085  0.00000000       0.001
   0.11937109  0.06891893  0.00000000       0.001
   0.11967955  0.06909702  0.00000000       0.001
   0.11998800  0.06927510  0.00000000       0.001
   0.12029645  0.06945319  0.00000000       0.001
   0.12060490  0.06963127  0.00000000       0.001
   0.12091336  0.06980936  0.00000000       0.001
   0.12122181  0.06998744  0.00000000       0.001
   0.12153026  0.07016553  0.00000000       0.001
   0.12183871  0.07034361  0.00000000       0.001
   0.12214717  0.07052170  0.00000000       0.001
   0.12245562  0.07069978  0.00000000       0.001
   0.12276407  0.07087787  0.00000000       0.001
   0.12307252  0.07105595  0.00000000       0.001
   0.12338098  0.07123404  0.00000000       0.001
   0.12368943  0.07141212  0.00000000       0.001
   0.12399788  0.07159021  0.00000000       0.001
   0.12430633  0.07176829  0.00000000       0.001
   0.12461479  0.07194638  0.00000000       0.001
   0.12492324  0.07212446  0.00000000       0.001
   0.12523169  0.07230255  0.00000000       0.001
   0.12554014  0.07248064  0.00000000       0.001
   0.12584860  0.07265872  0.00000000       0.001
   0.12615705  0.07283681  0.00000000       0.001
   0.12646550  0.07301489  0.00000000       0.001
   0.12677395  0.07319298  0.00000000       0.001
   0.12708240  0.07337106  0.00000000       0.001
   0.12739086  0.07354915  0.00000000       0.001
   0.12769931  0.07372723  0.00000000       0.001
   0.12800776  0.07390532  0.00000000       0.001
   0.12831621  0.07408340  0.00000000       0.001
   0.12862467  0.07426149  0.00000000       0.001
   0.12893312  0.07443957  0.00000000       0.001
   0.12924157  0.07461766  0.00000000       0.001
   0.12955002  0.07479574  0.00000000       0.001
   0.12985848  0.07497383  0.00000000       0.001
   0.13016693  0.07515191  0.00000000       0.001
   0.13047538  0.07533000  0.00000000       0.001
   0.13078383  0.07550808  0.00000000       0.001
   0.13109229  0.07568617  0.00000000       0.001
   0.13140074  0.07586425  0.00000000       0.001
   0.13170919  0.07604234  0.00000000       0.001
   0.13201764  0.07622042  0.00000000       0.001
   0.13232610  0.07639851  0.00000000       0.001
   0.13263455  0.07657659  0.00000000       0.001
   0.13294300  0.07675468  0.00000000       0.001
   0.13325145  0.07693276  0.00000000       0.001
   0.13355991  0.07711085  0.00000000       0.001
   0.13386836  0.07728893  0.00000000       0.001
   0.13417681  0.07746702  0.00000000       0.001
   0.13448526  0.07764510  0.00000000       0.001
   0.13479372  0.07782319  0.00000000       0.001
   0.13510217  0.07800127  0.00000000       0.001
   0.13541062  0.07817936  0.00000000       0.001
   0.13571907  0.07835744  0.00000000       0.001
   0.13602753  0.07853553  0.00000000       0.001
   0.13633598  0.07871361  0.00000000       0.001
   0.13664443  0.07889170  0.00000000       0.001
   0.13695288  0.07906978  0.00000000       0.001
   0.13726134  0.07924787  0.00000000       0.001
   0.13756979  0.07942595  0.00000000       0.001
   0.13787824  0.07960404  0.00000000       0.001
   0.13818669  0.07978212  0.00000000       0.001
   0.13849514  0.07996021  0.00000000       0.001
   0.13880360  0.08013829  0.00000000       0.001
   0.13911205  0.08031638  0.00000000       0.001
   0.13942050  0.08049446  0.00000000       0.001
   0.13972895  0.08067255  0.00000000       0.001
   0.14003741  0.08085063  0.00000000       0.001
   0.14034586  0.08102872  0.00000000       0.001
   0.14065431  0.08120680  0.00000000       0.001
   0.14096276  0.08138489  0.00000000       0.001
   0.14127122  0.08156298  0.00000000       0.001
   0.14157967  0.08174106  0.00000000       0.001
   0.14188812  0.08191915  0.00000000       0.001
   0.14219657  0.08209723  0.00000000       0.001
   0.14250503  0.08227532  0.00000000       0.001
   0.14281348  0.08245340  0.00000000       0.001
   0.14312193  0.08263149  0.00000000       0.001
   0.14343038  0.08280957  0.00000000       0.001
   0.14373884  0.08298766  0.00000000       0.001
   0.14404729  0.08316574  0.00000000       0.001
   0.14435574  0.08334383  0.00000000       0.001
   0.14466419  0.08352191  0.00000000       0.001
   0.14497265  0.08370000  0.00000000       0.001
   0.14528110  0.08387808  0.00000000       0.001
   0.14558955  0.08405617  0.00000000       0.001
   0.14589800  0.08423425  0.00000000       0.001
   0.14620646  0.08441234  0.00000000       0.001
   0.14651491  0.08459042  0.00000000       0.001
   0.14682336  0.08476851  0.00000000       0.001
   0.14713181  0.08494659  0.00000000       0.001
   0.14744027  0.08512468  0.00000000       0.001
   0.14774872  0.08530276  0.00000000       0.001
   0.14805717  0.08548085  0.00000000       0.001
   0.14836562  0.08565893  0.00000000       0.001
   0.14867408  0.08583702  0.00000000       0.001
   0.14898253  0.08601510  0.00000000       0.001
   0.14929098  0.08619319  0.00000000       0.001
   0.14959943  0.08637127  0.00000000       0.001
   0.14990789  0.08654936  0.00000000       0.001
   0.15021634  0.08672744  0.00000000       0.001
   0.15052479  0.08690553  0.00000000       0.001
   0.15083324  0.08708361  0.00000000       0.001
   0.15114169  0.08726170  0.00000000       0.001
   0.15145015  0.08743978  0.00000000       0.001
   0.15175860  0.08761787  0.00000000       0.001
   0.15206705  0.08779595  0.00000000       0.001
   0.15237550  0.08797404  0.00000000       0.001
   0.15268396  0.08815212  0.00000000       0.001
   0.15299241  0.08833021  0.00000000       0.001
   0.15330086  0.08850829  0.00000000       0.001
   0.15360931  0.08868638  0.00000000       0.001
   0.15391777  0.08886446  0.00000000       0.001
   0.15391777  0.08886446  0.00000000       0.001
   0.15381495  0.08904255  0.00000000       0.001
   0.15371213  0.08922063  0.00000000       0.001
   0.15360931  0.08939872  0.00000000       0.001
   0.15350650  0.08957680  0.00000000       0.001
   0.15340368  0.08975489  0.00000000       0.001
   0.15330086  0.08993297  0.00000000       0.001
   0.15319804  0.09011106  0.00000000       0.001
   0.15309523  0.09028914  0.00000000       0.001
   0.15299241  0.09046723  0.00000000       0.001
   0.15288959  0.09064532  0.00000000       0.001
   0.15278677  0.09082340  0.00000000       0.001
   0.15268396  0.09100149  0.00000000       0.001
   0.15258114  0.09117957  0.00000000       0.001
   0.15247832  0.09135766  0.00000000       0.001
   0.15237550  0.09153574  0.00000000       0.001
   0.15227269  0.09171383  0.00000000       0.001
   0.15216987  0.09189191  0.00000000       0.001
   0.15206705  0.09207000  0.00000000       0.001
   0.15196423  0.09224808  0.00000000       0.001
   0.15186142  0.09242617  0.00000000       0.001
   0.15175860  0.09260425  0.00000000       0.001
   0.15165578  0.09278234  0.00000000       0.001
   0.15155296  0.09296042  0.00000000       0.001
   0.15145015  0.09313851  0.00000000       0.001
   0.15134733  0.09331659  0.00000000       0.001
   0.15124451  0.09349468  0.00000000       0.001
   0.15114169  0.09367276  0.00000000       0.001
   0.15103888  0.09385085  0.00000000       0.001
   0.15093606  0.09402893  0.00000000       0.001
   0.15083324  0.09420702  0.00000000       0.001
   0.15073043  0.09438510  0.00000000       0.001
   0.15062761  0.09456319  0.00000000       0.001
   0.15052479  0.09474127  0.00000000       0.001
   0.15042197  0.09491936  0.00000000       0.001
   0.15031916  0.09509744  0.00000000       0.001
   0.15021634  0.09527553  0.00000000       0.001
   0.15011352  0.09545361  0.00000000       0.001
   0.15001070  0.09563170  0.00000000       0.001
   0.14990789  0.09580978  0.00000000       0.001
   0.14980507  0.09598787  0.00000000       0.001
   0.14970225  0.09616595  0.00000000       0.001
   0.14959943  0.09634404  0.00000000       0.001
   0.14949662  0.09652212  0.00000000       0.001
   0.14939380  0.09670021  0.00000000       0.001
   0.14929098  0.09687829  0.00000000       0.001
   0.14918816  0.09705638  0.00000000       0.001
   0.14908535  0.09723446  0.00000000       0.001
   0.14898253  0.09741255  0.00000000       0.001
   0.14887971  0.09759063  0.00000000       0.001
   0.14877689  0.09776872  0.00000000       0.001
   0.14867408  0.09794680  0.00000000       0.001
   0.14857126  0.09812489  0.00000000       0.001
   0.14846844  0.09830297  0.00000000       0.001
   0.14836562  0.09848106  0.00000000       0.001
   0.14826281  0.09865914  0.00000000       0.001
   0.14815999  0.09883723  0.00000000       0.001
   0.14805717  0.09901531  0.00000000       0.001
   0.14795435  0.09919340  0.00000000       0.001
   0.14785154  0.09937148  0.00000000       0.001
   0.14774872  0.09954957  0.00000000       0.001
   0.14764590  0.09972766  0.00000000       0.001
   0.14754308  0.09990574  0.00000000       0.001
   0.14744027  0.10008383  0.00000000       0.001
   0.14733745  0.10026191  0.00000000       0.001
   0.14723463  0.10044000  0.00000000       0.001
   0.14713181  0.10061808  0.00000000       0.001
   0.14702900  0.10079617  0.00000000       0.001
   0.14692618  0.10097425  0.00000000       0.001
   0.14682336  0.10115234  0.00000000       0.001
   0.14672054  0.10133042  0.00000000       0.001
   0.14661773  0.10150851  0.00000000       0.001
   0.14651491  0.10168659  0.00000000       0.001
   0.14641209  0.10186468  0.00000000       0.001
   0.14630927  0.10204276  0.00000000       0.001
   0.14620646  0.10222085  0.00000000       0.001
   0.14610364  0.10239893  0.00000000       0.001
   0.14600082  0.10257702  0.00000000       0.001
   0.14589800  0.10275510  0.00000000       0.001
   0.14579519  0.10293319  0.00000000       0.001
   0.14569237  0.10311127  0.00000000       0.001
   0.14558955  0.10328936  0.00000000       0.001
   0.14548673  0.10346744  0.00000000       0.001
   0.14538392  0.10364553  0.00000000       0.001
   0.14528110  0.10382361  0.00000000       0.001
   0.14517828  0.10400170  0.00000000       0.001
   0.14507546  0.10417978  0.00000000       0.001
   0.14497265  0.10435787  0.00000000       0.001
   0.14486983  0.10453595  0.00000000       0.001
   0.14476701  0.10471404  0.00000000       0.001
   0.14466419  0.10489212  0.00000000       0.001
   0.14456138  0.10507021  0.00000000       0.001
   0.14445856  0.10524829  0.00000000       0.001
   0.14435574  0.10542638  0.00000000       0.001
   0.14425292  0.10560446  0.00000000       0.001
   0.14415011  0.10578255  0.00000000       0.001
   0.14404729  0.10596063  0.00000000       0.001
   0.14394447  0.10613872  0.00000000       0.001
   0.14384165  0.10631680  0.00000000       0.001
   0.14373884  0.10649489  0.00000000       0.001
   0.14363602  0.10667297  0.00000000       0.001
   0.14353320  0.10685106  0.00000000       0.001
   0.14343038  0.10702914  0.00000000       0.001
   0.14332757  0.10720723  0.00000000       0.001
   0.14322475  0.10738531  0.00000000       0.001
   0.14312193  0.10756340  0.00000000       0.001
   0.14301911  0.10774148  0.00000000       0.001
   0.14291630  0.10791957  0.00000000       0.001
   0.14281348  0.10809765  0.00000000       0.001
   0.14271066  0.10827574  0.00000000       0.001
   0.14260784  0.10845382  0.00000000       0.001
   0.14250503  0.10863191  0.00000000       0.001
   0.14240221  0.10881000  0.00000000       0.001
   0.14229939  0.10898808  0.00000000       0.001
   0.14219657  0.10916617  0.00000000       0.001
   0.14209376  0.10934425  0.00000000       0.001
   0.14199094  0.10952234  0.00000000       0.001
   0.14188812  0.10970042  0.00000000       0.001
   0.14178530  0.10987851  0.00000000       0.001
   0.14168249  0.11005659  0.00000000       0.001
   0.14157967  0.11023468  0.00000000       0.001
   0.14147685  0.11041276  0.00000000       0.001
   0.14137403  0.11059085  0.00000000       0.001
   0.14127122  0.11076893  0.00000000       0.001
   0.14116840  0.11094702  0.00000000       0.001
   0.14106558  0.11112510  0.00000000       0.001
   0.14096276  0.11130319  0.00000000       0.001
   0.14085995  0.11148127  0.00000000       0.001
   0.14075713  0.11165936  0.00000000       0.001
   0.14065431  0.11183744  0.00000000       0.001
   0.14055149  0.11201553  0.00000000       0.001
   0.14044868  0.11219361  0.00000000       0.001
   0.14034586  0.11237170  0.00000000       0.001
   0.14024304  0.11254978  0.00000000       0.001
   0.14014022  0.11272787  0.00000000       0.001
   0.14003741  0.11290595  0.00000000       0.001
   0.13993459  0.11308404  0.00000000       0.001
   0.13983177  0.11326212  0.00000000       0.001
   0.13972895  0.11344021  0.00000000       0.001
   0.13962614  0.11361829  0.00000000       0.001
   0.13952332  0.11379638  0.00000000       0.001
   0.13942050  0.11397446  0.00000000       0.001
   0.13931768  0.11415255  0.00000000       0.001
   0.13921487  0.11433063  0.00000000       0.001
   0.13911205  0.11450872  0.00000000       0.001
   0.13900923  0.11468680  0.00000000       0.001
   0.13890641  0.11486489  0.00000000       0.001
   0.13880360  0.11504297  0.00000000       0.001
   0.13870078  0.11522106  0.00000000       0.001
   0.13859796  0.11539914  0.00000000       0.001
   0.13849514  0.11557723  0.00000000       0.001
   0.13839233  0.11575531  0.00000000       0.001
   0.13828951  0.11593340  0.00000000       0.001
   0.13818669  0.11611148  0.00000000       0.001
   0.13808388  0.11628957  0.00000000       0.001
   0.13798106  0.11646765  0.00000000       0.001
   0.13787824  0.11664574  0.00000000       0.001
   0.13777542  0.11682382  0.00000000       0.001
   0.13767261  0.11700191  0.00000000       0.001
   0.13756979  0.11717999  0.00000000       0.001
   0.13746697  0.11735808  0.00000000       0.001
   0.13736415  0.11753616  0.00000000       0.001
   0.13726134  0.11771425  0.00000000       0.001
   0.13715852  0.11789234  0.00000000       0.001
   0.13705570  0.11807042  0.00000000       0.001
   0.13695288  0.11824851  0.00000000       0.001
   0.13685007  0.11842659  0.00000000       0.001
   0.13674725  0.11860468  0.00000000       0.001
   0.13664443  0.11878276  0.00000000       0.001
   0.13654161  0.11896085  0.00000000       0.001
   0.13643880  0.11913893  0.00000000       0.001
   0.13633598  0.11931702  0.00000000       0.001
   0.13623316  0.11949510  0.00000000       0.001
   0.13613034  0.11967319  0.00000000       0.001
   0.13602753  0.11985127  0.00000000       0.001
   0.13592471  0.12002936  0.00000000       0.001
   0.13582189  0.12020744  0.00000000       0.001
   0.13571907  0.12038553  0.00000000       0.001
   0.13561626  0.12056361  0.00000000       0.001
   0.13551344  0.12074170  0.00000000       0.001
   0.13541062  0.12091978  0.00000000       0.001
   0.13530780  0.12109787  0.00000000       0.001
   0.13520499  0.12127595  0.00000000       0.001
   0.13510217  0.12145404  0.00000000       0.001
   0.13499935  0.12163212  0.00000000       0.001
   0.13489653  0.12181021  0.00000000       0.001
   0.13479372  0.12198829  0.00000000       0.001
   0.13469090  0.12216638  0.00000000       0.001
   0.13458808  0.12234446  0.00000000       0.001
   0.13448526  0.12252255  0.00000000       0.001
   0.13438245  0.12270063  0.00000000       0.001
   0.13427963  0.12287872  0.00000000       0.001
   0.13417681  0.12305680  0.00000000       0.001
   0.13407399  0.12323489  0.00000000       0.001
   0.13397118  0.12341297  0.00000000       0.001
   0.13386836  0.12359106  0.00000000       0.001
   0.13376554  0.12376914  0.00000000       0.001
   0.13366272  0.12394723  0.00000000       0.001
   0.13355991  0.12412531  0.00000000       0.001
   0.13345709  0.12430340  0.00000000       0.001
   0.13335427  0.12448148  0.00000000       0.001
   0.13325145  0.12465957  0.00000000       0.001
   0.13314864  0.12483765  0.00000000       0.001
   0.13304582  0.12501574  0.00000000       0.001
   0.13294300  0.12519382  0.00000000       0.001
   0.13284018  0.12537191  0.00000000       0.001
   0.13273737  0.12554999  0.00000000       0.001
   0.13263455  0.12572808  0.00000000       0.001
   0.13253173  0.12590616  0.00000000       0.001
   0.13242891  0.12608425  0.00000000       0.001
   0.13232610  0.12626233  0.00000000       0.001
   0.13222328  0.12644042  0.00000000       0.001
   0.13212046  0.12661851  0.00000000       0.001
   0.13201764  0.12679659  0.00000000       0.001
   0.13191483  0.12697468  0.00000000       0.001
   0.13181201  0.12715276  0.00000000       0.001
   0.13170919  0.12733085  0.00000000       0.001
   0.13160637  0.12750893  0.00000000       0.001
   0.13150356  0.12768702  0.00000000       0.001
   0.13140074  0.12786510  0.00000000       0.001
   0.13129792  0.12804319  0.00000000       0.001
   0.13119510  0.12822127  0.00000000       0.001
   0.13109229  0.12839936  0.00000000       0.001
   0.13098947  0.12857744  0.00000000       0.001
   0.13088665  0.12875553  0.00000000       0.001
   0.13078383  0.12893361  0.00000000       0.001
   0.13068102  0.12911170  0.00000000       0.001
   0.13057820  0.12928978  0.00000000       0.001
   0.13047538  0.12946787  0.00000000       0.001
   0.13037256  0.12964595  0.00000000       0.001
   0.13026975  0.12982404  0.00000000       0.001
   0.13016693  0.13000212  0.00000000       0.001
   0.13006411  0.13018021  0.00000000       0.001
   0.12996129  0.13035829  0.00000000       0.001
   0.12985848  0.13053638  0.00000000       0.001
   0.12975566  0.13071446  0.00000000       0.001
   0.12965284  0.13089255  0.00000000       0.001
   0.12955002  0.13107063  0.00000000       0.001
   0.12944721  0.13124872  0.00000000       0.001
   0.12934439  0.13142680  0.00000000       0.001
   0.12924157  0.13160489  0.00000000       0.001
   0.12913875  0.13178297  0.00000000       0.001
   0.12903594  0.13196106  0.00000000       0.001
   0.12893312  0.13213914  0.00000000       0.001
   0.12883030  0.13231723  0.00000000       0.001
   0.12872748  0.13249531  0.00000000       0.001
   0.12862467  0.13267340  0.00000000       0.001
   0.12852185  0.13285148  0.00000000       0.001
   0.12841903  0.13302957  0.00000000       0.001
   0.12831621  0.13320765  0.00000000       0.001
   0.12821340  0.13338574  0.00000000       0.001
   0.12811058  0.13356382  0.00000000       0.001
   0.12800776  0.13374191  0.00000000       0.001
   0.12790494  0.13391999  0.00000000       0.001
   0.12780213  0.13409808  0.00000000       0.001
   0.12769931  0.13427616  0.00000000       0.001
   0.12759649  0.13445425  0.00000000       0.001
   0.12749367  0.13463233  0.00000000       0.001
   0.12739086  0.13481042  0.00000000       0.001
   0.12728804  0.13498850  0.00000000       0.001
   0.12718522  0.13516659  0.00000000       0.001
   0.12708240  0.13534467  0.00000000       0.001
   0.12697959  0.13552276  0.00000000       0.001
   0.12687677  0.13570085  0.00000000       0.001
   0.12677395  0.13587893  0.00000000       0.001
   0.12667113  0.13605702  0.00000000       0.001
   0.12656832  0.13623510  0.00000000       0.001
   0.12646550  0.13641319  0.00000000       0.001
   0.12636268  0.13659127  0.00000000       0.001
   0.12625986  0.13676936  0.00000000       0.001
   0.12615705  0.13694744  0.00000000       0.001
   0.12605423  0.13712553  0.00000000       0.001
   0.12595141  0.13730361  0.00000000       0.001
   0.12584859  0.13748170  0.00000000       0.001
   0.12574578  0.13765978  0.00000000       0.001
   0.12564296  0.13783787  0.00000000       0.001
   0.12554014  0.13801595  0.00000000       0.001
   0.12543733  0.13819404  0.00000000       0.001
   0.12533451  0.13837212  0.00000000       0.001
   0.12523169  0.13855021  0.00000000       0.001
   0.12512887  0.13872829  0.00000000       0.001
   0.12502606  0.13890638  0.00000000       0.001
   0.12492324  0.13908446  0.00000000       0.001
   0.12482042  0.13926255  0.00000000       0.001
   0.12471760  0.13944063  0.00000000       0.001
   0.12461479  0.13961872  0.00000000       0.001
   0.12451197  0.13979680  0.00000000       0.001
   0.12440915  0.13997489  0.00000000       0.001
   0.12430633  0.14015297  0.00000000       0.001
   0.12420352  0.14033106  0.00000000       0.001
   0.12410070  0.14050914  0.00000000       0.001
   0.12399788  0.14068723  0.00000000       0.001
   0.12389506  0.14086531  0.00000000       0.001
   0.12379225  0.14104340  0.00000000       0.001
   0.12368943  0.14122148  0.00000000       0.001
   0.12358661  0.14139957  0.00000000       0.001
   0.12348379  0.14157765  0.00000000       0.001
   0.12338098  0.14175574  0.00000000       0.001
   0.12327816  0.14193382  0.00000000       0.001
   0.12317534  0.14211191  0.00000000       0.001
   0.12307252  0.14228999  0.00000000       0.001
   0.12296971  0.14246808  0.00000000       0.001
   0.12286689  0.14264616  0.00000000       0.001
   0.12276407  0.14282425  0.00000000       0.001
   0.12266125  0.14300233  0.00000000       0.001
   0.12255844  0.14318042  0.00000000       0.001
   0.12245562  0.14335850  0.00000000       0.001
   0.12235280  0.14353659  0.00000000       0.001
   0.12224998  0.14371467  0.00000000       0.001
   0.12214717  0.14389276  0.00000000       0.001
   0.12204435  0.14407084  0.00000000       0.001
   0.12194153  0.14424893  0.00000000       0.001
   0.12183871  0.14442701  0.00000000       0.001
   0.12173590  0.14460510  0.00000000       0.001
   0.12163308  0.14478319  0.00000000       0.001
   0.12153026  0.14496127  0.00000000       0.001
   0.12142744  0.14513936  0.00000000       0.001
   0.12132463  0.14531744  0.00000000       0.001
   0.12122181  0.14549553  0.00000000       0.001
   0.12111899  0.14567361  0.00000000       0.001
   0.12101617  0.14585170  0.00000000       0.001
   0.12091336  0.14602978  0.00000000       0.001
   0.12081054  0.14620787  0.00000000       0.001
   0.12070772  0.14638595  0.00000000       0.001
   0.12060490  0.14656404  0.00000000       0.001
   0.12050209  0.14674212  0.00000000       0.001
   0.12039927  0.14692021  0.00000000       0.001
   0.12029645  0.14709829  0.00000000       0.001
   0.12019363  0.14727638  0.00000000       0.001
   0.12009082  0.14745446  0.00000000       0.001
   0.11998800  0.14763255  0.00000000       0.001
   0.11988518  0.14781063  0.00000000       0.001
   0.11978236  0.14798872  0.00000000       0.001
   0.11967955  0.14816680  0.00000000       0.001
   0.11957673  0.14834489  0.00000000       0.001
   0.11947391  0.14852297  0.00000000       0.001
   0.11937109  0.14870106  0.00000000       0.001
   0.11926828  0.14887914  0.00000000       0.001
   0.11916546  0.14905723  0.00000000       0.001
   0.11906264  0.14923531  0.00000000       0.001
   0.11895982  0.14941340  0.00000000       0.001
   0.11885701  0.14959148  0.00000000       0.001
   0.11875419  0.14976957  0.00000000       0.001
   0.11865137  0.14994765  0.00000000       0.001
   0.11854855  0.15012574  0.00000000       0.001
   0.11844574  0.15030382  0.00000000       0.001
   0.11834292  0.15048191  0.00000000       0.001
   0.11824010  0.15065999  0.00000000       0.001
   0.11813728  0.15083808  0.00000000       0.001
   0.11803447  0.15101616  0.00000000       0.001
   0.11793165  0.15119425  0.00000000       0.001
   0.11782883  0.15137233  0.00000000       0.001
   0.11772601  0.15155042  0.00000000       0.001
   0.11762320  0.15172850  0.00000000       0.001
   0.11752038  0.15190659  0.00000000       0.001
   0.11741756  0.15208467  0.00000000       0.001
   0.11731474  0.15226276  0.00000000       0.001
   0.11721193  0.15244084  0.00000000       0.001
   0.11710911  0.15261893  0.00000000       0.001
   0.11700629  0.15279701  0.00000000       0.001
   0.11690347  0.15297510  0.00000000       0.001
   0.11680066  0.15315318  0.00000000       0.001
   0.11669784  0.15333127  0.00000000       0.001
   0.11659502  0.15350935  0.00000000       0.001
   0.11649220  0.15368744  0.00000000       0.001
   0.11638939  0.15386553  0.00000000       0.001
   0.11628657  0.15404361  0.00000000       0.001
   0.11618375  0.15422170  0.00000000       0.001
   0.11608093  0.15439978  0.00000000       0.001
   0.11597812  0.15457787  0.00000000       0.001
   0.11587530  0.15475595  0.00000000       0.001
   0.11577248  0.15493404  0.00000000       0.001
   0.11566966  0.15511212  0.00000000       0.001
   0.11556685  0.15529021  0.00000000       0.001
   0.11546403  0.15546829  0.00000000       0.001
   0.11536121  0.15564638  0.00000000       0.001
   0.11525839  0.15582446  0.00000000       0.001
   0.11515558  0.15600255  0.00000000       0.001
   0.11505276  0.15618063  0.00000000       0.001
   0.11494994  0.15635872  0.00000000       0.001
   0.11484712  0.15653680  0.00000000       0.001
   0.11474431  0.15671489  0.00000000       0.001
   0.11464149  0.15689297  0.00000000       0.001
   0.11453867  0.15707106  0.00000000       0.001
   0.11443585  0.15724914  0.00000000       0.001
   0.11433304  0.15742723  0.00000000       0.001
   0.11423022  0.15760531  0.00000000       0.001
   0.11412740  0.15778340  0.00000000       0.001
   0.11402458  0.15796148  0.00000000       0.001
   0.11392177  0.15813957  0.00000000       0.001
   0.11381895  0.15831765  0.00000000       0.001
   0.11371613  0.15849574  0.00000000       0.001
   0.11361331  0.15867382  0.00000000       0.001
   0.11351050  0.15885191  0.00000000       0.001
   0.11340768  0.15902999  0.00000000       0.001
   0.11330486  0.15920808  0.00000000       0.001
   0.11320205  0.15938616  0.00000000       0.001
   0.11309923  0.15956425  0.00000000       0.001
   0.11299641  0.15974233  0.00000000       0.001
   0.11289359  0.15992042  0.00000000       0.001
   0.11279078  0.16009850  0.00000000       0.001
   0.11268796  0.16027659  0.00000000       0.001
   0.11258514  0.16045467  0.00000000       0.001
   0.11248232  0.16063276  0.00000000       0.001
   0.11237951  0.16081084  0.00000000       0.001
   0.11227669  0.16098893  0.00000000       0.001
   0.11217387  0.16116701  0.00000000       0.001
   0.11207105  0.16134510  0.00000000       0.001
   0.11196824  0.16152318  0.00000000       0.001
   0.11186542  0.16170127  0.00000000       0.001
   0.11176260  0.16187935  0.00000000       0.001
   0.11165978  0.16205744  0.00000000       0.001
   0.11155697  0.16223552  0.00000000       0.001
   0.11145415  0.16241361  0.00000000       0.001
   0.11135133  0.16259169  0.00000000       0.001
   0.11124851  0.16276978  0.00000000       0.001
   0.11114570  0.16294787  0.00000000       0.001
   0.11104288  0.16312595  0.00000000       0.001
   0.11094006  0.16330404  0.00000000       0.001
   0.11083724  0.16348212  0.00000000       0.001
   0.11073443  0.16366021  0.00000000       0.001
   0.11063161  0.16383829  0.00000000       0.001
   0.11052879  0.16401638  0.00000000       0.001
   0.11042597  0.16419446  0.00000000       0.001
   0.11032316  0.16437255  0.00000000       0.001
   0.11022034  0.16455063  0.00000000       0.001
   0.11011752  0.16472872  0.00000000       0.001
   0.11001470  0.16490680  0.00000000       0.001
   0.10991189  0.16508489  0.00000000       0.001
   0.10980907  0.16526297  0.00000000       0.001
   0.10970625  0.16544106  0.00000000       0.001
   0.10960343  0.16561914  0.00000000       0.001
   0.10950062  0.16579723  0.00000000       0.001
   0.10939780  0.16597531  0.00000000       0.001
[...]
 total augmentation occupancy for first ion, spin component:           2
  0.167   0.000   0.000   0.000   0.000   0.000   0.000   0.000   0.000   0.000   0.000   0.000   0.000   0.000   0.000   0.000
  0.000   0.167   0.000   0.000   0.000   0.000   0.000   0.000   0.000   0.000   0.000   0.000   0.000   0.000   0.000   0.000
  0.000   0.000   0.167   0.000   0.000   0.000   0.000   0.000   0.000   0.000   0.000   0.000   0.000   0.000   0.000   0.000
  0.000   0.000   0.000   0.167   0.000   0.000   0.000   0.000   0.000   0.000   0.000   0.000   0.000   0.000   0.000   0.000
  0.000   0.000   0.000   0.000   0.167   0.000   0.000   0.000   0.000   0.000   0.000   0.000   0.000   0.000   0.000   0.000
  0.000   0.000   0.000   0.000   0.000   0.000   0.000   0.000   0.000   0.000   0.000   0.000   0.000   0.000   0.000   0.000
  0.000   0.000   0.000   0.000   0.000   0.000   0.000   0.000   0.000   0.000   0.000   0.000   0.000   0.000   0.000   0.000
  0.000   0.000   0.000   0.000   0.000   0.000   0.000   0.000   0.000   0.000   0.000   0.000   0.000   0.000   0.000   0.000
  0.000   0.000   0.000   0.000   0.000   0.000   0.000   0.000   0.000   0.000   0.000   0.000   0.000   0.000   0.000   0.000
  0.000   0.000   0.000   0.000   0.000   0.000   0.000   0.000   0.000   0.000   0.000   0.000   0.000   0.000   0.000   0.000
  0.000   0.000   0.000   0.000   0.000   0.000   0.000   0.000   0.000   0.000   0.167   0.000   0.000   0.000   0.000   0.000
  0.000   0.000   0.000   0.000   0.000   0.000   0.000   0.000   0.000   0.000   0.000   0.000   0.000   0.000   0.000   0.000
  0.000   0.000   0.000   0.000   0.000   0.000   0.000   0.000   0.000   0.000   0.000   0.000   0.000   0.000   0.000   0.000
  0.000   0.000   0.000   0.000   0.000   0.000   0.000   0.000   0.000   0.000   0.000   0.000   0.000   0.000   0.000   0.000
  0.000   0.000   0.000   0.000   0.000   0.000   0.000   0.000   0.000   0.000   0.000   0.000   0.000   0.000   0.000   0.000
  0.000   0.000   0.000   0.000   0.000   0.000   0.000   0.000   0.000   0.000   0.000   0.000   0.000   0.000   0.000   0.000
  0.000   0.000   0.000   0.000   0.000   0.000   0.000   0.000   0.000   0.000   0.000   0.000   0.000   0.000   0.000   0.000
  0.000   0.000   0.000   0.000   0.000   0.000   0.000   0.000   0.000   0.000   0.000   0.000   0.000   0.000   0.000   0.000
 total augmentation occupancy for first ion, spin component:           3
  0.167   0.000   0.000   0.000   0.000   0.000   0.000   0.000   0.000   0.000   0.000   0.000   0.000   0.000   0.000   0.000
  0.000   0.167   0.000   0.000   0.000   0.000   0.000   0.000   0.000   0.000   0.000   0.000   0.000   0.000   0.000   0.000
  0.000   0.000   0.167   0.000   0.000   0.000   0.000   0.000   0.000   0.000   0.000   0.000   0.000   0.000   0.000   0.000
  0.000   0.000   0.000   0.167   0.000   0.000   0.000   0.000   0.000   0.000   0.000   0.000   0.000   0.000   0.000   0.000
  0.000   0.000   0.000   0.000   0.167   0.000   0.000   0.000   0.000   0.000   0.000   0.000   0.000   0.000   0.000   0.000
  0.000   0.000   0.000   0.000   0.000   0.000   0.000   0.000   0.000   0.000   0.000   0.000   0.000   0.000   0.000   0.000
  0.000   0.000   0.000   0.000   0.000   0.000   0.000   0.000   0.000   0.000   0.000   0.000   0.000   0.000   0.000   0.000
  0.000   0.000   0.000   0.000   0.000   0.000   0.000   0.000   0.000   0.000   0.000   0.000   0.000   0.000   0.000   0.000
  0.000   0.000   0.000   0.000   0.000   0.000   0.000   0.000   0.000   0.000   0.000   0.000   0.000   0.000   0.000   0.000
  0.000   0.000   0.000   0.000   0.000   0.000   0.000   0.000   0.000   0.000   0.000   0.000   0.000   0.000   0.000   0.000
  0.000   0.000   0.000   0.000   0.000   0.000   0.000   0.000   0.000   0.000   0.167   0.000   0.000   0.000   0.000   0.000
  0.000   0.000   0.000   0.000   0.000   0.000   0.000   0.000   0.000   0.000   0.000   0.000   0.000   0.000   0.000   0.000
  0.000   0.000   0.000   0.000   0.000   0.000   0.000   0.000   0.000   0.000   0.000   0.000   0.000   0.000   0.000   0.000
  0.000   0.000   0.000   0.000   0.000   0.000   0.000   0.000   0.000   0.000   0.000   0.000   0.000   0.000   0.000   0.000
  0.000   0.000   0.000   0.000   0.000   0.000   0.000   0.000   0.000   0.000   0.000   0.000   0.000   0.000   0.000   0.000
  0.000   0.000   0.000   0.000   0.000   0.000   0.000   0.000   0.000   0.000   0.000   0.000   0.000   0.000   0.000   0.000
  0.000   0.000   0.000   0.000   0.000   0.000   0.000   0.000   0.000   0.000   0.000   0.000   0.000   0.000   0.000   0.000
  0.000   0.000   0.000   0.000   0.000   0.000   0.000   0.000   0.000   0.000   0.000   0.000   0.000   0.000   0.000   0.000
 total augmentation occupancy for first ion, spin component:           4
  0.167   0.000   0.000   0.000   0.000   0.000   0.000   0.000   0.000   0.000   0.000   0.000   0.000   0.000   0.000   0.000
  0.000   0.167   0.000   0.000   0.000   0.000   0.000   0.000   0.000   0.000   0.000   0.000   0.000   0.000   0.000   0.000
  0.000   0.000   0.167   0.000   0.000   0.000   0.000   0.000   0.000   0.000   0.000   0.000   0.000   0.000   0.000   0.000
  0.000   0.000   0.000   0.167   0.000   0.000   0.000   0.000   0.000   0.000   0.000   0.000   0.000   0.000   0.000   0.000
  0.000   0.000   0.000   0.000   0.167   0.000   0.000   0.000   0.000   0.000   0.000   0.000   0.000   0.000   0.000   0.000
  0.000   0.000   0.000   0.000   0.000   0.000   0.000   0.000   0.000   0.000   0.000   0.000   0.000   0.000   0.000   0.000
  0.000   0.000   0.000   0.000   0.000   0.000   0.000   0.000   0.000   0.000   0.000   0.000   0.000   0.000   0.000   0.000
  0.000   0.000   0.000   0.000   0.000   0.000   0.000   0.000   0.000   0.000   0.000   0.000   0.000   0.000   0.000   0.000
  0.000   0.000   0.000   0.000   0.000   0.000   0.000   0.000   0.000   0.000   0.000   0.000   0.000   0.000   0.000   0.000
  0.000   0.000   0.000   0.000   0.000   0.000   0.000   0.000   0.000   0.000   0.000   0.000   0.000   0.000   0.000   0.000
  0.000   0.000   0.000   0.000   0.000   0.000   0.000   0.000   0.000   0.000   0.167   0.000   0.000   0.000   0.000   0.000
  0.000   0.000   0.000   0.000   0.000   0.000   0.000   0.000   0.000   0.000   0.000   0.000   0.000   0.000   0.000   0.000
  0.000   0.000   0.000   0.000   0.000   0.000   0.000   0.000   0.000   0.000   0.000   0.000   0.000   0.000   0.000   0.000
  0.000   0.000   0.000   0.000   0.000   0.000   0.000   0.000   0.000   0.000   0.000   0.000   0.000   0.000   0.000   0.000
  0.000   0.000   0.000   0.000   0.000   0.000   0.000   0.000   0.000   0.000   0.000   0.000   0.000   0.000   0.000   0.000
  0.000   0.000   0.000   0.000   0.000   0.000   0.000   0.000   0.000   0.000   0.000   0.000   0.000   0.000   0.000   0.000
  0.000   0.000   0.000   0.000   0.000   0.000   0.000   0.000   0.000   0.000   0.000   0.000   0.000   0.000   0.000   0.000
  0.000   0.000   0.000   0.000   0.000   0.000   0.000   0.000   0.000   0.000   0.000   0.000   0.000   0.000   0.000   0.000


------------------------ aborting loop because EDIFF is reached ----------------------------------------


 


 total charge     
 
# of ion       s       p       d       tot
------------------------------------------
    1        0.394   0.539   4.507   5.439
    2        1.354   2.303   0.000   3.657
    3        1.471   2.279   0.062   3.812
--------------------------------------------------
tot          3.219   5.121   4.569  12.908
 


 magnetization (x)
 
# of ion       s       p       d       tot
------------------------------------------
    1        0.001   0.001  -0.003  -0.002
    2        0.000  -0.002   0.000  -0.002
    3        0.000   0.002   0.000   0.003
--------------------------------------------------
tot          0.001   0.001  -0.003  -0.001
 


 magnetization (y)
 
# of ion       s       p       d       tot
------------------------------------------
    1       -0.001  -0.000   0.001   0.001
    2       -0.000   0.003   0.000   0.003
    3       -0.000  -0.003  -0.000  -0.003
--------------------------------------------------
tot         -0.001  -0.000   0.001   0.000
 


 magnetization (z)
 
# of ion       s       p       d       tot
------------------------------------------
    1       -0.000   0.000   0.001   0.001
    2        0.000  -0.001   0.000  -0.001
    3        0.000  -0.001  -0.000  -0.001
--------------------------------------------------
tot         -0.000  -0.001   0.001   0.000
 
    CHARGE:  cpu time    5.5381: real time    5.9486
    FORLOC:  cpu time    0.0043: real time    0.0042
    FORNL :  cpu time   24.9430: real time   24.9827
    STRESS:  cpu time   60.3149: real time   60.6808
    FORCOR:  cpu time    0.1836: real time    0.2486
    FORHAR:  cpu time    0.0111: real time    0.0112
    OFIELD:  cpu time    0.0010: real time    0.0010

  FORCE on cell =-STRESS in cart. coord.  units (eV):
  Direction    XX          YY          ZZ          XY          YZ          ZX
  --------------------------------------------------------------------------------------
  Alpha Z    16.24306    16.24306    16.24306
  Ewald    3858.61792  3858.61792 -4414.00856     0.00000    -0.00000     0.00000
  Hartree  3958.67114  3959.08814 -3924.47452    -0.51998    -0.10360    -0.31848
  E(xc)     -70.97775   -71.60216   -72.05204     1.06318    -0.00901    -0.05424
  Local   -8068.75018 -8072.29103  8079.03667     5.41088     0.31753     0.81501
  n-local    91.85754    91.09870    97.81300     0.45028     0.03528     0.09146
  augment   -11.60090   -11.30345   -12.81756    -0.38805     0.00101     0.02065
  Kinetic   225.69101   230.09773   231.37466    -5.90015    -0.01367    -0.06046
  Fock        0.00000     0.00000     0.00000     0.00000     0.00000     0.00000
  -------------------------------------------------------------------------------------
  Total      -0.24816    -0.05108     1.11471     0.11614     0.22754     0.49394
  in kB      -1.81499    -0.37361     8.15276     0.84945     1.66418     3.61255
  external pressure =        1.99 kB  Pullay stress =        0.00 kB


 VOLUME and BASIS-vectors are now :
 -----------------------------------------------------------------------------
  energy-cutoff  :      500.00
  volume of cell :      219.06
      direct lattice vectors                 reciprocal lattice vectors
     3.248487878  0.000000000  0.000000000     0.307835534  0.177728928  0.000000000
    -1.624243938  2.813273026  0.000000000     0.000000000  0.355457857  0.000000000
     0.000000000  0.000000000 23.970395749     0.000000000  0.000000000  0.041718126

  length of vectors
     3.248487878  3.248487877 23.970395749     0.355457857  0.355457857  0.041718126


 FORCES acting on ions
    electron-ion (+dipol)            ewald-force                    non-local-force                 convergence-correction
 -----------------------------------------------------------------------------------------------
   0.309E+00 0.142E+00 0.128E+01   0.776E-07 -.101E-06 -.411E+01   -.528E-01 -.888E-01 0.115E+01   -.554E-01 -.355E-01 0.157E+01
   -.168E+01 -.751E+00 0.540E+03   -.820E-07 0.592E-07 -.542E+03   0.322E+00 0.324E+00 0.414E+01   0.106E+01 0.341E+00 -.165E+01
   -.988E+00 -.275E+00 -.547E+03   0.443E-08 0.421E-07 0.546E+03   0.232E+00 0.108E+00 -.204E+01   0.709E+00 0.193E+00 0.287E+01
 -----------------------------------------------------------------------------------------------
   -.236E+01 -.883E+00 -.601E+01   -.477E-14 -.493E-14 0.000E+00   0.502E+00 0.342E+00 0.325E+01   0.171E+01 0.499E+00 0.279E+01
 
 
 POSITION                                       TOTAL-FORCE (eV/Angst)
 -----------------------------------------------------------------------------------
     -0.00000      1.87552     11.92616         0.250983      0.031967     -0.123273
      1.62424      0.93776     10.39769        -0.254044     -0.072179     -0.016147
      1.62424      0.93776     13.63174         0.003062      0.040212      0.139420
 -----------------------------------------------------------------------------------
    total drift:                               -0.149953     -0.042083      0.028169


--------------------------------------------------------------------------------------------------------



  FREE ENERGIE OF THE ION-ELECTRON SYSTEM (eV)
  ---------------------------------------------------
  free  energy   TOTEN  =       -20.61541326 eV

  energy  without entropy=      -20.61541326  energy(sigma->0) =      -20.61541326
 


--------------------------------------------------------------------------------------------------------


    POTLOK:  cpu time    0.2486: real time    0.4707


--------------------------------------------------------------------------------------------------------


     LOOP+:  cpu time 1524.4866: real time 1572.3691
    4ORBIT:  cpu time    0.0010: real time    0.0155
 


 orbital moment (x)
 
 # of ion     p       d       tot
 ----------------------------------------
  1        -0.004   0.035   0.030
  2        -0.081   0.000  -0.081
  3         0.060  -0.015   0.045
 ----------------------------------------
           -0.025   0.020  -0.006
 


 orbital moment (y)
 
 # of ion     p       d       tot
 ----------------------------------------
  1         0.005  -0.018  -0.013
  2         0.065   0.000   0.065
  3        -0.047   0.010  -0.037
 ----------------------------------------
            0.023  -0.008   0.015
 


 orbital moment (z)
 
 # of ion     p       d       tot
 ----------------------------------------
  1        -0.011   0.656   0.646
  2        -0.043   0.000  -0.043
  3        -0.024   0.007  -0.016
 ----------------------------------------
           -0.077   0.664   0.586

 Spin-Orbit-Coupling matrix elements

 Ion:    1  E_soc:     -0.0281608
 l=   1
     0.0000000    -0.0019304    -0.0018530
    -0.0019304     0.0000000    -0.0021678
    -0.0018530    -0.0021678     0.0000000
 l=   2
     0.0000000    -0.0005339     0.0000000    -0.0004499    -0.0025903
    -0.0005339     0.0000000    -0.0015348    -0.0003620    -0.0005099
     0.0000000    -0.0015348     0.0000000    -0.0016877     0.0000000
    -0.0004499    -0.0003620    -0.0016877     0.0000000    -0.0004607
    -0.0025903    -0.0005099     0.0000000    -0.0004607     0.0000000
 l=   3
     0.0000000     0.0000000     0.0000000     0.0000000     0.0000000     0.0000000     0.0000000
     0.0000000     0.0000000     0.0000000     0.0000000     0.0000000     0.0000000     0.0000000
     0.0000000     0.0000000     0.0000000     0.0000000     0.0000000     0.0000000     0.0000000
     0.0000000     0.0000000     0.0000000     0.0000000     0.0000000     0.0000000     0.0000000
     0.0000000     0.0000000     0.0000000     0.0000000     0.0000000     0.0000000     0.0000000
     0.0000000     0.0000000     0.0000000     0.0000000     0.0000000     0.0000000     0.0000000
     0.0000000     0.0000000     0.0000000     0.0000000     0.0000000     0.0000000     0.0000000

 Ion:    2  E_soc:     -0.0021756
 l=   1
     0.0000000    -0.0003332    -0.0003846
    -0.0003332     0.0000000    -0.0003700
    -0.0003846    -0.0003700     0.0000000
 l=   2
     0.0000000     0.0000000     0.0000000     0.0000000     0.0000000
     0.0000000     0.0000000     0.0000000     0.0000000     0.0000000
     0.0000000     0.0000000     0.0000000     0.0000000     0.0000000
     0.0000000     0.0000000     0.0000000     0.0000000     0.0000000
     0.0000000     0.0000000     0.0000000     0.0000000     0.0000000
 l=   3
     0.0000000     0.0000000     0.0000000     0.0000000     0.0000000     0.0000000     0.0000000
     0.0000000     0.0000000     0.0000000     0.0000000     0.0000000     0.0000000     0.0000000
     0.0000000     0.0000000     0.0000000     0.0000000     0.0000000     0.0000000     0.0000000
     0.0000000     0.0000000     0.0000000     0.0000000     0.0000000     0.0000000     0.0000000
     0.0000000     0.0000000     0.0000000     0.0000000     0.0000000     0.0000000     0.0000000
     0.0000000     0.0000000     0.0000000     0.0000000     0.0000000     0.0000000     0.0000000
     0.0000000     0.0000000     0.0000000     0.0000000     0.0000000     0.0000000     0.0000000

 Ion:    3  E_soc:     -0.0407889
 l=   1
     0.0000000    -0.0067089    -0.0069758
    -0.0067089     0.0000000    -0.0067058
    -0.0069758    -0.0067058     0.0000000
 l=   2
     0.0000000     0.0000009     0.0000000     0.0000004    -0.0000078
     0.0000009     0.0000000    -0.0000021     0.0000073    -0.0000008
     0.0000000    -0.0000021     0.0000000    -0.0000027     0.0000000
     0.0000004     0.0000073    -0.0000027     0.0000000     0.0000009
    -0.0000078    -0.0000008     0.0000000     0.0000009     0.0000000
 l=   3
     0.0000000     0.0000000     0.0000000     0.0000000     0.0000000     0.0000000     0.0000000
     0.0000000     0.0000000     0.0000000     0.0000000     0.0000000     0.0000000     0.0000000
     0.0000000     0.0000000     0.0000000     0.0000000     0.0000000     0.0000000     0.0000000
     0.0000000     0.0000000     0.0000000     0.0000000     0.0000000     0.0000000     0.0000000
     0.0000000     0.0000000     0.0000000     0.0000000     0.0000000     0.0000000     0.0000000
     0.0000000     0.0000000     0.0000000     0.0000000     0.0000000     0.0000000     0.0000000
     0.0000000     0.0000000     0.0000000     0.0000000     0.0000000     0.0000000     0.0000000
 


 total charge     
 
# of ion       s       p       d       tot
------------------------------------------
    1        0.394   0.539   4.507   5.439
    2        1.354   2.303   0.000   3.657
    3        1.471   2.279   0.062   3.812
--------------------------------------------------
tot          3.219   5.121   4.569  12.908
 


 magnetization (x)
 
# of ion       s       p       d       tot
------------------------------------------
    1        0.001   0.001  -0.003  -0.002
    2        0.000  -0.002   0.000  -0.002
    3        0.000   0.002   0.000   0.003
--------------------------------------------------
tot          0.001   0.001  -0.003  -0.001
 


 magnetization (y)
 
# of ion       s       p       d       tot
------------------------------------------
    1       -0.001  -0.000   0.001   0.001
    2       -0.000   0.003   0.000   0.003
    3       -0.000  -0.003  -0.000  -0.003
--------------------------------------------------
tot         -0.001  -0.000   0.001   0.000
 


 magnetization (z)
 
# of ion       s       p       d       tot
------------------------------------------
    1       -0.000   0.000   0.001   0.001
    2        0.000  -0.001   0.000  -0.001
    3        0.000  -0.001  -0.000  -0.001
--------------------------------------------------
tot         -0.000  -0.001   0.001   0.000
 

 total amount of memory used by VASP MPI-rank0   595119. kBytes
=======================================================================

   base      :      30000. kBytes
   nonlr-proj:        393. kBytes
   fftplans  :       2350. kBytes
   grid      :       9354. kBytes
   one-center:         62. kBytes
   wavefun   :     552960. kBytes
 
  
  
 General timing and accounting informations for this job:
 ========================================================
  
                  Total CPU time used (sec):     1580.712
                            User time (sec):     1558.549
                          System time (sec):       22.163
                         Elapsed time (sec):     1636.927
  
                   Maximum memory used (kb):      834588.
                   Average memory used (kb):           0.
  
                          Minor page faults:      1909135
                          Major page faults:          247
                 Voluntary context switches:       219866
